 Gaussian 16, Revision A.03,
 Gaussian 16:  ES64L-G16RevA.03 25-Dec-2016

 -------------------------------------
 # td=(root=1) cam-b3lyp/cc-pvdz force
 -------------------------------------

 -------------------
 Title Card Required
 -------------------
 Symbolic Z-matrix:
 Charge =  0 Multiplicity = 1

                         Standard orientation:
 ---------------------------------------------------------------------
 Center     Atomic      Atomic             Coordinates (Angstroms)
 Number     Number       Type             X           Y           Z
 ---------------------------------------------------------------------
      1         16           0      -13.929600   -2.044970    0.281170
      2          6           0      -15.435500   -1.247850    0.802690
      3          6           0      -12.992160   -0.603970   -0.186730
      4          6           0      -15.855080   -0.070570    0.168100
      5          7           0      -15.049330    0.532550   -0.806460
      6          1           0      -15.427500    1.394470   -1.179990
      7          6           0      -13.653520    0.506970   -0.728240
      8          6           0      -16.232600   -1.834440    1.780770
      9          6           0      -17.086600    0.486000    0.518330
     10          6           0      -17.470370   -1.286260    2.108810
     11          6           0      -17.896230   -0.126830    1.469470
     12          1           0      -18.861360    0.316790    1.718760
     13          1           0      -18.095180   -1.764860    2.863650
     14          1           0      -15.880850   -2.740490    2.277000
     15          1           0      -17.412600    1.408520    0.031470
     16          6           0      -11.605980   -0.618600   -0.097470
     17          6           0      -12.887930    1.577800   -1.191980
     18          6           0      -10.831500    0.443140   -0.581330
     19          1           0      -11.118200   -1.498360    0.325100
     20          6           0      -11.500390    1.538360   -1.135740
     21          1           0      -13.391110    2.457120   -1.601320
     22          1           0      -10.930050    2.395220   -1.496710
     23          6           0       -9.350310    0.404540   -0.501490
     24          6           0       -8.701940   -0.128340    0.619100
     25          6           0       -8.560480    0.901910   -1.545530
     26          6           0       -7.173970    0.869820   -1.474510
     27          1           0       -9.039340    1.300310   -2.440980
     28          6           0       -7.315350   -0.161430    0.696190
     29          1           0       -9.291710   -0.503950    1.456330
     30          6           0       -6.551950    0.338480   -0.351330
     31          1           0       -6.821560   -0.576960    1.574790
     32          1           0       -6.570220    1.257210   -2.295010
     33          7           0       -5.112070    0.295190   -0.270870
     34          6           0       -4.498030   -0.951650   -0.426460
     35          6           0       -4.435810    1.519890   -0.100250
     36          8           0       -5.146540   -1.965510   -0.559780
     37          8           0       -5.065800    2.555530   -0.121240
     38          6           0       -2.961880    1.467090    0.070570
     39          6           0       -3.012780   -0.944450   -0.448440
     40          6           0       -2.283350    0.244910   -0.206300
     41          6           0       -2.208720    2.604030    0.374500
     42          6           0       -0.796550    2.525810    0.313900
     43          8           0       -2.672700    3.816540    0.719150
     44          6           0       -0.146160    1.356740    0.019980
     45          6           0       -0.873100    0.168090   -0.235350
     46          6           0       -0.196880   -1.054190   -0.519010
     47          1           0       -0.217510    3.423830    0.525210
     48          6           0       -2.364440   -2.116760   -0.733110
     49          6           0       -0.953030   -2.194210   -0.805530
     50          1           0       -2.944830   -3.017910   -0.926410
     51          8           0       -0.486770   -3.410970   -1.133750
     52          6           0       -3.640330    3.979080    1.772840
     53          6           0        0.426890   -3.591430   -2.231930
     54          6           0       -0.097550   -4.725340   -3.083480
     55          1           0        1.419680   -3.807020   -1.821930
     56          1           0        0.490540   -2.652530   -2.805340
     57          1           0       -0.202700   -5.639210   -2.481010
     58          1           0        0.605890   -4.933620   -3.903980
     59          1           0       -1.078520   -4.482370   -3.517590
     60          6           0       -3.167840    5.112720    2.654320
     61          1           0       -3.720040    3.035400    2.336370
     62          1           0       -4.615860    4.186010    1.319400
     63          1           0       -2.204830    4.877520    3.130840
     64          1           0       -3.910190    5.306980    3.443240
     65          1           0       -3.045830    6.032120    2.063450
     66          6           0        1.279570   -1.103280   -0.386320
     67          6           0        1.337600    1.363650    0.015400
     68          7           0        1.950740    0.122120   -0.183940
     69          8           0        1.926000   -2.127560   -0.424380
     70          8           0        1.990730    2.367650    0.194940
     71          6           0        3.389370    0.076900   -0.115680
     72          6           0        4.126380   -0.138130   -1.273990
     73          6           0        5.513040   -0.182180   -1.212850
     74          6           0        6.151990    0.004850    0.006520
     75          6           0        5.418000    0.227640    1.164890
     76          6           0        4.030960    0.256960    1.103760
     77          1           0        3.612790   -0.275840   -2.225070
     78          1           0        6.099410   -0.351380   -2.115500
     79          1           0        5.929970    0.369250    2.116240
     80          1           0        3.444050    0.427650    2.005520
     81          7           0        7.595260   -0.027930    0.069010
     82          6           0        8.291320    1.038850   -0.514070
     83          6           0        8.186820   -1.129640    0.709120
     84          6           0        9.776920    0.982030   -0.428770
     85          6           0        9.677860   -1.160360    0.770170
     86          6           0       10.426680   -0.103510    0.201470
     87          8           0        7.716610    1.952420   -1.057790
     88          8           0        7.511690   -2.008070    1.188510
     89          6           0       10.508440    2.005510   -0.977280
     90          6           0       11.924970    1.997140   -0.925380
     91          6           0       12.588600    0.942410   -0.313660
     92          1           0        9.981880    2.829880   -1.457110
     93          6           0       11.839630   -0.114850    0.253560
     94          6           0       10.343490   -2.214400    1.381860
     95          6           0       11.760280   -2.223430    1.431060
     96          6           0       12.491450   -1.200430    0.881860
     97          1           0       12.286340   -3.048680    1.909770
     98          6           0       12.591490    3.119400   -1.531970
     99          7           0       12.980760    4.074950   -2.054820
    100          6           0        9.681390   -3.337190    1.992350
    101          7           0        9.301280   -4.294110    2.519490
    102          6           0       14.077370    0.904280   -0.244320
    103          6           0       13.977760   -1.256470    0.960930
    104          7           0       14.666780   -0.190350    0.387050
    105          8           0       14.551470   -2.180410    1.495970
    106          8           0       14.766740    1.782160   -0.713340
    107          6           0       16.129300   -0.191700    0.435100
    108          1           0       16.444240   -1.100220    0.953910
    109          1           0       16.483810    0.701290    0.965520
    110          1           0       16.534040   -0.166650   -0.584710
 ---------------------------------------------------------------------

 SCF Done:  E(RCAM-B3LYP) =  -3800.53673617     A.U. after   19 cycles

 Excitation energies and oscillator strengths:

 Excited State   1:      Singlet-A      2.9098 eV  426.09 nm  f=0.0000  <S**2>=0.000
     266 -> 267        0.70688
 This state for optimization and/or second-order correction.
 Total Energy, E(TD-HF/TD-DFT) =  -3800.42980158
 Copying the excited state density for this state as the 1-particle RhoCI density.

 Excited State   2:      Singlet-A      3.4204 eV  362.49 nm  f=0.3369  <S**2>=0.000
     264 -> 268       -0.67924

 Excited State   3:      Singlet-A      3.4930 eV  354.95 nm  f=0.0002  <S**2>=0.000
     263 -> 268        0.12590
     265 -> 268       -0.10950
     266 -> 268        0.67928

 The electronic state is 1-A.
 Alpha  occ. eigenvalues --  -88.96038 -19.25383 -19.25255 -19.23788 -19.23783
 Alpha  occ. eigenvalues --  -19.23693 -19.23579 -19.21535 -19.21436 -19.21293
 Alpha  occ. eigenvalues --  -19.21108 -14.49247 -14.49098 -14.47300 -14.46868
 Alpha  occ. eigenvalues --  -14.43994 -14.42807 -14.42758 -10.42245 -10.42016
 Alpha  occ. eigenvalues --  -10.42000 -10.41983 -10.40224 -10.39967 -10.39806
 Alpha  occ. eigenvalues --  -10.39470 -10.36377 -10.36377 -10.36114 -10.36113
 Alpha  occ. eigenvalues --  -10.34738 -10.34699 -10.34554 -10.34502 -10.33776
 Alpha  occ. eigenvalues --  -10.33754 -10.33452 -10.33432 -10.32735 -10.32404
 Alpha  occ. eigenvalues --  -10.32373 -10.32360 -10.32071 -10.32027 -10.31776
 Alpha  occ. eigenvalues --  -10.31667 -10.31471 -10.31168 -10.31102 -10.30901
 Alpha  occ. eigenvalues --  -10.30722 -10.30672 -10.30644 -10.30619 -10.29709
 Alpha  occ. eigenvalues --  -10.29577 -10.29560 -10.29464 -10.28946 -10.28893
 Alpha  occ. eigenvalues --  -10.28735 -10.28657 -10.28006 -10.27475 -10.27358
 Alpha  occ. eigenvalues --  -10.27343 -10.27331 -10.27296 -10.27261 -10.27182
 Alpha  occ. eigenvalues --  -10.27134 -10.27063 -10.26988 -10.26986 -10.26448
 Alpha  occ. eigenvalues --  -10.26264 -10.26234  -8.02346  -5.98882  -5.98495
 Alpha  occ. eigenvalues --   -5.97808  -1.19043  -1.18995  -1.17249  -1.17057
 Alpha  occ. eigenvalues --   -1.17037  -1.16981  -1.16284  -1.16124  -1.14678
 Alpha  occ. eigenvalues --   -1.14390  -1.06863  -1.06395  -1.05628  -1.04841
 Alpha  occ. eigenvalues --   -1.04479  -1.04352  -1.01693  -1.00688  -1.00554
 Alpha  occ. eigenvalues --   -0.98305  -0.96820  -0.96419  -0.95134  -0.94909
 Alpha  occ. eigenvalues --   -0.94534  -0.94063  -0.91963  -0.91448  -0.89594
 Alpha  occ. eigenvalues --   -0.89297  -0.88148  -0.86803  -0.86440  -0.86102
 Alpha  occ. eigenvalues --   -0.85731  -0.85522  -0.84320  -0.83931  -0.83802
 Alpha  occ. eigenvalues --   -0.83162  -0.82854  -0.82303  -0.81006  -0.79216
 Alpha  occ. eigenvalues --   -0.78582  -0.77958  -0.77621  -0.77097  -0.76343
 Alpha  occ. eigenvalues --   -0.75364  -0.74535  -0.73812  -0.73520  -0.72438
 Alpha  occ. eigenvalues --   -0.72247  -0.71896  -0.71599  -0.71048  -0.70367
 Alpha  occ. eigenvalues --   -0.70110  -0.69977  -0.68839  -0.68481  -0.67899
 Alpha  occ. eigenvalues --   -0.67121  -0.65662  -0.65520  -0.65320  -0.63787
 Alpha  occ. eigenvalues --   -0.63401  -0.63096  -0.62867  -0.61809  -0.61706
 Alpha  occ. eigenvalues --   -0.60831  -0.60448  -0.60403  -0.59865  -0.59733
 Alpha  occ. eigenvalues --   -0.59351  -0.59109  -0.58919  -0.57535  -0.57363
 Alpha  occ. eigenvalues --   -0.57122  -0.56975  -0.56538  -0.56512  -0.56300
 Alpha  occ. eigenvalues --   -0.56245  -0.56138  -0.55993  -0.55104  -0.54743
 Alpha  occ. eigenvalues --   -0.54303  -0.54275  -0.53987  -0.53948  -0.53742
 Alpha  occ. eigenvalues --   -0.53527  -0.53115  -0.53036  -0.52515  -0.52319
 Alpha  occ. eigenvalues --   -0.52263  -0.52136  -0.51792  -0.51621  -0.51532
 Alpha  occ. eigenvalues --   -0.51479  -0.51060  -0.50928  -0.50705  -0.50619
 Alpha  occ. eigenvalues --   -0.50094  -0.50000  -0.49833  -0.49484  -0.49182
 Alpha  occ. eigenvalues --   -0.48963  -0.48820  -0.48705  -0.48620  -0.48609
 Alpha  occ. eigenvalues --   -0.48365  -0.47912  -0.47753  -0.47489  -0.47446
 Alpha  occ. eigenvalues --   -0.47237  -0.46961  -0.46808  -0.46373  -0.45984
 Alpha  occ. eigenvalues --   -0.45714  -0.45490  -0.45218  -0.45187  -0.45097
 Alpha  occ. eigenvalues --   -0.44974  -0.44857  -0.44799  -0.44148  -0.44064
 Alpha  occ. eigenvalues --   -0.43308  -0.42607  -0.42497  -0.42438  -0.41846
 Alpha  occ. eigenvalues --   -0.41671  -0.41588  -0.41185  -0.40756  -0.40133
 Alpha  occ. eigenvalues --   -0.39940  -0.39712  -0.39431  -0.38821  -0.37956
 Alpha  occ. eigenvalues --   -0.37908  -0.37756  -0.37468  -0.36924  -0.36422
 Alpha  occ. eigenvalues --   -0.36384  -0.36372  -0.36231  -0.35975  -0.35546
 Alpha  occ. eigenvalues --   -0.35395  -0.35227  -0.34652  -0.34373  -0.33968
 Alpha  occ. eigenvalues --   -0.33533  -0.33010  -0.32896  -0.32021  -0.31958
 Alpha  occ. eigenvalues --   -0.31642  -0.31478  -0.29822  -0.29023  -0.27993
 Alpha  occ. eigenvalues --   -0.23841
 Alpha virt. eigenvalues --   -0.11766  -0.07880  -0.05248  -0.04564  -0.01887
 Alpha virt. eigenvalues --   -0.01772   0.00483   0.00526   0.01346   0.01795
 Alpha virt. eigenvalues --    0.02166   0.02646   0.03209   0.03422   0.04340

 Mulliken charges:
               1
     1  S    0.075448
     2  C   -0.157100
     3  C   -0.151150
     4  C    0.104064
     5  N   -0.131416
     6  H    0.076096
     7  C    0.102740
     8  C    0.060407
     9  C    0.011019
    10  C    0.031655
    11  C    0.045061
    12  H   -0.021201
    13  H   -0.023064
    14  H   -0.020235
    15  H   -0.032080
    16  C    0.053153
    17  C    0.027709
    18  C    0.024783
    19  H   -0.026501
    20  C    0.023979
    21  H   -0.030919
    22  H   -0.028819
    23  C    0.034805
    24  C    0.014793
    25  C    0.014233
    26  C    0.097162
    27  H   -0.027297
    28  C    0.093157
    29  H   -0.024188
    30  C    0.073540
    31  H   -0.032837
    32  H   -0.031508
    33  N   -0.305214
    34  C    0.196611
    35  C    0.196992
    36  O   -0.191429
    37  O   -0.201808
    38  C   -0.084374
    39  C   -0.111690
    40  C    0.160210
    41  C    0.065421
    42  C    0.088090
    43  O   -0.258354
    44  C   -0.115880
    45  C    0.162158
    46  C   -0.084849
    47  H   -0.008286
    48  C    0.089344
    49  C    0.062173
    50  H   -0.008302
    51  O   -0.258690
    52  C    0.080337
    53  C    0.081389
    54  C   -0.014150
    55  H    0.060516
    56  H    0.012059
    57  H    0.042612
    58  H    0.025723
    59  H    0.029990
    60  C   -0.014170
    61  H    0.015094
    62  H    0.060816
    63  H    0.029107
    64  H    0.027039
    65  H    0.041238
    66  C    0.199779
    67  C    0.197835
    68  N   -0.311465
    69  O   -0.196668
    70  O   -0.192498
    71  C    0.095044
    72  C    0.091775
    73  C    0.090723
    74  C    0.087117
    75  C    0.091736
    76  C    0.094051
    77  H   -0.026943
    78  H   -0.025495
    79  H   -0.023305
    80  H   -0.021700
    81  N   -0.317222
    82  C    0.207262
    83  C    0.178210
    84  C   -0.137623
    85  C   -0.052468
    86  C    0.220103
    87  O   -0.174797
    88  O   -0.161451
    89  C    0.085086
    90  C    0.051808
    91  C   -0.051051
    92  H    0.006279
    93  C    0.222462
    94  C    0.051151
    95  C    0.088143
    96  C   -0.137482
    97  H    0.005810
    98  C   -0.121927
    99  N   -0.030234
   100  C   -0.121102
   101  N   -0.029650
   102  C    0.173875
   103  C    0.209450
   104  N   -0.283920
   105  O   -0.195100
   106  O   -0.181962
   107  C    0.071706
   108  H    0.063566
   109  H    0.057987
   110  H    0.057899
 Sum of Mulliken charges =  -0.00000

 Dipole moment (field-independent basis, Debye):
    X=             -2.2292    Y=              1.9588    Z=             -0.1201  Tot=              2.9700
 Quadrupole moment (field-independent basis, Debye-Ang):
   XX=           -392.9153   YY=           -484.3189   ZZ=           -429.2066
   XY=            -55.5596   XZ=              0.9970   YZ=             26.6117

 Normal termination of Gaussian 16 at Wed Mar 16 18:07:21 2022.
